Title: CKT1
Date: Thu Nov 22 14:12:33 2018
Plotname: Transient analysis JoSIM
Flags: real
No. Variables: 4
No. Points: 4000
Command: version 4.3.8
Variables:
 0 time S
 1 v(1) V
 2 v(3) V
 3 v(5) V
Values:
 0 0.0000000000000000e+00
   0.0000000000000000e+00
   0.0000000000000000e+00
   0.0000000000000000e+00
 1 2.4999999999999999e-13
   2.3897865245281641e-05
   1.0199736636143129e-05
   1.7498842748465401e-05
 2 4.9999999999999999e-13
   2.8532485167889435e-05
   2.2104978266831281e-05
   3.6406597669887583e-05
 3 7.5000000000000004e-13
   7.8233479061854132e-05
   5.6707085870519270e-05
   9.1233572108820752e-05
 4 9.9999999999999998e-13
   1.0554141648047658e-04
   9.8457303600684777e-05
   1.5084871057637495e-04
 5 1.2499999999999999e-12
   1.7657419008646109e-04
   1.7338273425472999e-04
   2.5504780904072184e-04
 6 1.5000000000000001e-12
   2.2443799389641793e-04
   2.7232342046939665e-04
   3.7828433802588360e-04
 7 1.7500000000000000e-12
   3.0901861864579528e-04
   4.2643824203061729e-04
   5.5853079287414959e-04
 8 2.0000000000000000e-12
   3.4019511815894612e-04
   6.2130818595524555e-04
   7.4376925549585757e-04
 9 2.2499999999999999e-12
   3.2838266818835697e-04
   8.4717887984335331e-04
   8.9927465244836989e-04
 10 2.4999999999999998e-12
    1.4082997531310619e-04
    9.8770904561481967e-04
    8.8783389314961653e-04
 11 2.7499999999999998e-12
    -1.4102323443373902e-04
    9.4264894651797351e-04
    7.0820485575248237e-04
 12 3.0000000000000001e-12
    -4.2381220901540565e-04
    6.8852162309528695e-04
    4.1480135232598519e-04
 13 3.2500000000000001e-12
    -4.6464956893110224e-04
    3.6819725017997272e-04
    1.6205443510643522e-04
 14 3.5000000000000000e-12
    -3.2422860297217347e-04
    8.0750097457630085e-05
    -1.8555143755582946e-05
 15 3.7500000000000000e-12
    -6.9636412768627745e-05
    -1.0573306247680006e-04
    -8.4296554459299160e-05
 16 3.9999999999999999e-12
    1.1417382270346944e-04
    -2.0711314859991390e-04
    -8.9169048867438944e-05
 17 4.2499999999999999e-12
    2.3916224107477257e-04
    -2.1734328629343844e-04
    -2.9917246966414257e-05
 18 4.4999999999999998e-12
    2.3092866549338288e-04
    -1.7618596056258909e-04
    2.9460724959681485e-05
 19 4.7499999999999998e-12
    1.7982456145360895e-04
    -9.0564793898034263e-05
    9.9825495574916797e-05
 20 4.9999999999999997e-12
    6.6085015935352879e-05
    -7.0832484499096949e-06
    1.3514114849751287e-04
 21 5.2499999999999996e-12
    -1.9939112852287479e-05
    6.1572005156384867e-05
    1.4949812714622849e-04
 22 5.4999999999999996e-12
    -6.9708604813165619e-05
    9.5940433043898788e-05
    1.3390676227266636e-04
 23 5.7499999999999995e-12
    -7.3686159907943981e-05
    9.9236508075596145e-05
    1.0325086451499869e-04
 24 6.0000000000000003e-12
    -4.3984591775882587e-05
    8.0775323889736034e-05
    7.0199425594690468e-05
 25 6.2500000000000002e-12
    -2.6662164001984515e-06
    5.1198358719135139e-05
    4.2352986435975252e-05
 26 6.5000000000000002e-12
    3.0479204362899356e-05
    1.9541756901546198e-05
    2.2591737660641908e-05
 27 6.7500000000000001e-12
    4.4860650002150494e-05
    -7.7223635861506175e-06
    1.0725810588344822e-05
 28 7.0000000000000001e-12
    3.9932809784151528e-05
    -2.6609575277661600e-05
    5.1032889305213896e-06
 29 7.2500000000000000e-12
    2.2168818858315717e-05
    -3.5357754933395156e-05
    3.7152289833838502e-06
 30 7.5000000000000000e-12
    8.1569009217387356e-07
    -3.4283381786720833e-05
    4.7911941983047645e-06
 31 7.7499999999999991e-12
    -1.5912823492153245e-05
    -2.5588950863563807e-05
    7.0196397083692658e-06
 32 7.9999999999999998e-12
    -2.3369286491316428e-05
    -1.2827513667581080e-05
    9.5393805610009840e-06
 33 8.2500000000000006e-12
    -2.1291855201375099e-05
    4.0158268994081123e-08
    1.1826775368309588e-05
 34 8.4999999999999997e-12
    -1.2898721441140671e-05
    9.7305397220182342e-06
    1.3571166828146874e-05
 35 8.7500000000000005e-12
    -2.8493971773327700e-06
    1.4449805590754014e-05
    1.4591213990763094e-05
 36 8.9999999999999996e-12
    4.9002195807897053e-06
    1.4141413862435234e-05
    1.4803931137042715e-05
 37 9.2500000000000004e-12
    8.4174571926246174e-06
    1.0150349088992596e-05
    1.4227695651631038e-05
 38 9.4999999999999995e-12
    7.9275585504025650e-06
    4.5227399632598741e-06
    1.2988439324212770e-05
 39 9.7500000000000003e-12
    5.0397136147520109e-06
    -7.5170943540434342e-07
    1.1304935816661480e-05
 40 9.9999999999999994e-12
    1.6673995499290675e-06
    -4.3014623089210529e-06
    9.4467307124027804e-06
 41 1.0250000000000000e-11
    -8.1188626257144500e-07
    -5.6134172995939502e-06
    7.6756596916919629e-06
 42 1.0499999999999999e-11
    -1.8931221124527352e-06
    -4.9574661375284180e-06
    6.1907303013796931e-06
 43 1.0750000000000000e-11
    -1.8098442599841572e-06
    -3.0961275236508210e-06
    5.0942905138094360e-06
 44 1.0999999999999999e-11
    -1.1478275563948925e-06
    -9.2211988918968675e-07
    4.3880807187492567e-06
 45 1.1250000000000000e-11
    -4.5842318388816111e-07
    8.4483327969005155e-07
    3.9963551594412788e-06
 46 1.1499999999999999e-11
    -3.8941367013368283e-08
    1.8223210812526403e-06
    3.8045773979116480e-06
 47 1.1750000000000000e-11
    8.4560559455212209e-08
    1.9775359662163732e-06
    3.6990116747962409e-06
 48 1.2000000000000001e-11
    4.2187890485732849e-08
    1.5284418158438754e-06
    3.5951010704704154e-06
 49 1.2250000000000000e-11
    -1.9966491041686213e-08
    7.9929596927938218e-07
    3.4488820548735566e-06
 50 1.2500000000000000e-11
    -2.5648263079353084e-08
    9.0341960922910546e-08
    3.2527213971472887e-06
 51 1.2750000000000000e-11
    2.1768025238681071e-08
    -4.0267959728010360e-07
    3.0215796013468134e-06
 52 1.3000000000000000e-11
    7.8988725019102368e-08
    -6.1125653534498039e-07
    2.7774503173682782e-06
 53 1.3249999999999999e-11
    1.0889097663445077e-07
    -5.7165928414829267e-07
    2.5379331924991794e-06
 54 1.3500000000000000e-11
    1.0308612758856348e-07
    -3.7928089045577640e-07
    2.3115330766603002e-06
 55 1.3749999999999999e-11
    7.6475637349280451e-08
    -1.4111582342200761e-07
    2.0989500131233640e-06
 56 1.4000000000000000e-11
    4.8215283085517591e-08
    5.9049875643939393e-08
    1.8975601744475714e-06
 57 1.4249999999999999e-11
    2.6961491937909504e-08
    1.7690453552746265e-07
    1.7059081327473443e-06
 58 1.4500000000000000e-11
    9.3000689029183736e-09
    2.0692481893071018e-07
    1.5260127259395092e-06
 59 1.4750000000000001e-11
    -1.1633943860361873e-08
    1.7071565559735775e-07
    1.3628834798460080e-06
 60 1.5000000000000000e-11
    -3.6713042944700597e-08
    1.0148629581564587e-07
    1.2220661266103142e-06
 61 1.5249999999999999e-11
    -5.8198891055363799e-08
    3.0462477241522242e-08
    1.1067641515412644e-06
 62 1.5499999999999998e-11
    -6.5020368162065773e-08
    -2.1492139627128046e-08
    1.0159929067142482e-06
 63 1.5750000000000001e-11
    -5.1103477486606069e-08
    -4.6377973164264810e-08
    9.4453375037799846e-07
 64 1.6000000000000000e-11
    -2.0423024733613043e-08
    -4.6939222341606381e-08
    8.8457026436452538e-07
 65 1.6249999999999999e-11
    1.4532807087949684e-08
    -3.2099729538337136e-08
    8.2820028504064069e-07
 66 1.6500000000000001e-11
    3.9479339166738348e-08
    -1.2126423029684360e-08
    7.6976520495947425e-07
 67 1.6750000000000000e-11
    4.5726896498021058e-08
    4.9441965255292745e-09
    7.0714670306388670e-07
 68 1.6999999999999999e-11
    3.3898678329213200e-08
    1.4962860327117581e-08
    6.4169196145369466e-07
 69 1.7249999999999999e-11
    1.2370132460026717e-08
    1.7547089232487962e-08
    5.7699246665076200e-07
 70 1.7500000000000001e-11
    -7.9505938764025397e-09
    1.4820962459109505e-08
    5.1713112991948586e-07
 71 1.7750000000000000e-11
    -1.9149299047924867e-08
    9.7982019660063817e-09
    4.6510637260977969e-07
 72 1.7999999999999999e-11
    -1.9250052017694141e-08
    5.0492633117128185e-09
    4.2195396811588876e-07
 73 1.8249999999999998e-11
    -1.1638573486471432e-08
    1.9938667403022710e-09
    3.8673828849089542e-07
 74 1.8500000000000001e-11
    -2.0656761284126857e-09
    8.4462775648878018e-10
    3.5723574266376297e-07
 75 1.8750000000000000e-11
    4.6786987708581640e-09
    1.0003779654189969e-09
    3.3091716688995326e-07
 76 1.8999999999999999e-11
    6.6843120396370415e-09
    1.5972588908721107e-09
    3.0580971625555724e-07
 77 1.9249999999999998e-11
    4.8751014470986564e-09
    1.9625583761470698e-09
    2.8095512406205257e-07
 78 1.9500000000000001e-11
    1.6027798784359892e-09
    1.8318831643153509e-09
    2.5639477819057151e-07
 79 1.9750000000000000e-11
    -9.9333564117232154e-10
    1.3221510920867572e-09
    2.3280446255171576e-07
 80 1.9999999999999999e-11
    -1.9537003724881541e-09
    7.4909741419186852e-10
    2.1100304429405321e-07
 81 2.0250000000000001e-11
    -1.5221216982143349e-09
    4.1270331826675339e-10
    1.9155089036313779e-07
 82 2.0500000000000000e-11
    -5.4025266899015989e-10
    4.5069849236153633e-10
    1.7456419195701700e-07
 83 2.0749999999999999e-11
    2.4082417050125260e-10
    8.0375622070854289e-10
    1.5975526327391496e-07
 84 2.0999999999999999e-11
    5.2756237356108016e-10
    1.2775330083670113e-09
    1.4661872955410446e-07
 85 2.1250000000000001e-11
    4.4498572578446915e-10
    1.6503305924194466e-09
    1.3464875050209950e-07
 86 2.1500000000000000e-11
    2.6851999573515584e-10
    1.7697107746998827e-09
    1.2349275121259365e-07
 87 2.1749999999999999e-11
    1.7491290013604832e-10
    1.6007218090804542e-09
    1.1299980869679954e-07
 88 2.1999999999999998e-11
    1.6130318261642351e-10
    1.2177798736385669e-09
    1.0317663822124361e-07
 89 2.2250000000000001e-11
    1.2467880460692582e-10
    7.5684603959244611e-10
    9.4097864956010045e-08
 90 2.2500000000000000e-11
    -7.4974288929996469e-12
    3.5567907717728151e-10
    8.5821803408889577e-08
 91 2.2749999999999999e-11
    -2.0521489368929835e-10
    1.0704712627996054e-10
    7.8344712247714089e-08
 92 2.2999999999999998e-11
    -3.6120306702233651e-10
    3.8200571917149876e-11
    7.1599796625161118e-08
 93 2.3250000000000000e-11
    -3.7529506845962457e-10
    1.1683278160502515e-10
    6.5486035807297682e-08
 94 2.3500000000000000e-11
    -2.2729687489814188e-10
    2.7460502647900825e-10
    5.9903790499749900e-08
 95 2.3749999999999999e-11
    1.0433819173233383e-11
    4.3611142073592623e-10
    5.4778731470837578e-08
 96 2.4000000000000001e-11
    2.2071535267856324e-10
    5.4295967924156076e-10
    5.0067027916611290e-08
 97 2.4250000000000000e-11
    3.1101422435717008e-10
    5.6705997128218204e-10
    4.5745716420366855e-08
 98 2.4499999999999999e-11
    2.5954637137420855e-10
    5.1194549331522827e-10
    4.1797842400756458e-08
 99 2.4749999999999999e-11
    1.1526529730687685e-10
    4.0457196446791271e-10
    3.8201326843924181e-08
 100 2.5000000000000001e-11
     -3.9712403070851776e-11
     2.8204653528343410e-10
     3.4925797568103895e-08
 101 2.5250000000000000e-11
     -1.3713451554875355e-10
     1.7816162290918585e-10
     3.1936326590263717e-08
 102 2.5499999999999999e-11
     -1.5193061522408846e-10
     1.1372892592479149e-10
     2.9199868772325933e-08
 103 2.5749999999999998e-11
     -1.0269979745097801e-10
     9.2915106801572632e-11
     2.6690096307277044e-08
 104 2.6000000000000001e-11
     -3.0541011993706624e-11
     1.0560442153929417e-10
     2.4388420255755730e-08
 105 2.6250000000000000e-11
     2.6965858365701756e-11
     1.3389878202247404e-10
     2.2281601430075310e-08
 106 2.6499999999999999e-11
     5.1956172870959438e-11
     1.5980413414196071e-10
     2.0358020412242911e-08
 107 2.6749999999999998e-11
     4.7488774197745887e-11
     1.7124461744116664e-10
     1.8604822740514362e-08
 108 2.7000000000000000e-11
     2.8106208332934202e-11
     1.6464939805847399e-10
     1.7007125194799279e-08
 109 2.7250000000000000e-11
     8.3141488485538595e-12
     1.4393480981403166e-10
     1.5549105269899253e-08
 110 2.7499999999999999e-11
     -4.2630044459757155e-12
     1.1707497094042485e-10
     1.4215881621989970e-08
 111 2.7749999999999998e-11
     -9.2358256459368349e-12
     9.2103647737160630e-11
     1.2994975324487953e-08
 112 2.8000000000000000e-11
     -9.7718998691431747e-12
     7.4183801486562900e-11
     1.1876671537187043e-08
 113 2.8249999999999999e-11
     -8.7114807555133122e-12
     6.4570833238403093e-11
     1.0853340752384547e-08
 114 2.8499999999999999e-11
     -6.9347166897770762e-12
     6.1344428187615641e-11
     9.9182973187532039e-09
 115 2.8750000000000001e-11
     -4.0676182040677578e-12
     6.1120205105429830e-11
     9.0648635138446641e-09
 116 2.9000000000000000e-11
     -2.8923478195830299e-14
     6.0784141802050712e-11
     8.2860334247192996e-09
 117 2.9250000000000002e-11
     4.1457687977031199e-12
     5.8563013139112602e-11
     7.5747251460024818e-09
 118 2.9500000000000002e-11
     6.7481103170619061e-12
     5.4219540803705085e-11
     6.9243126272914082e-09
 119 2.9750000000000001e-11
     6.5521689636416358e-12
     4.8581444863336504e-11
     6.3290643777832827e-09
 120 3.0000000000000000e-11
     3.6920596788170279e-12
     4.2816522103793133e-11
     5.7842592882865855e-09
 121 3.0249999999999999e-11
     -3.6733073180417186e-13
     3.7831975057436807e-11
     5.2859753003225464e-09
 122 3.0499999999999998e-11
     -3.6795080871065977e-12
     3.3995998876911295e-11
     4.8307186532718129e-09
 123 3.0749999999999997e-11
     -4.8725927806470004e-12
     3.1178616380177345e-11
     4.4151052474932471e-09
 124 3.0999999999999996e-11
     -3.7653370005275022e-12
     2.8979673966523373e-11
     4.0357301550088265e-09
 125 3.1250000000000002e-11
     -1.2647339772686728e-12
     2.6983929098735619e-11
     3.6892342075689998e-09
 126 3.1500000000000001e-11
     1.2701666975145631e-12
     2.4931056815492370e-11
     3.3724751043011370e-09
 127 3.1750000000000000e-11
     2.7577033538672691e-12
     2.2763686084498105e-11
     3.0826802275662861e-09
 128 3.1999999999999999e-11
     2.8234645524372048e-12
     2.0577885773267806e-11
     2.8174974441735369e-09
 129 3.2249999999999998e-11
     1.7909848951114249e-12
     1.8528965569573593e-11
     2.5749322585168904e-09
 130 3.2499999999999998e-11
     3.5392001829226416e-13
     1.6743333431409706e-11
     2.3532202795542231e-09
 131 3.2749999999999997e-11
     -8.2338129370196356e-13
     1.5267675592214348e-11
     2.1507053943217551e-09
 132 3.3000000000000002e-11
     -1.3707923685046808e-12
     1.4063536258126803e-11
     1.9657749050511902e-09
 133 3.3250000000000002e-11
     -1.2672519283940531e-12
     1.3037225911062241e-11
     1.7968627308729418e-09
 134 3.3500000000000001e-11
     -7.3567150635223122e-13
     1.2085344877621473e-11
     1.6424957939966192e-09
 135 3.3750000000000000e-11
     -8.1015489455937839e-14
     1.1135201257833323e-11
     1.5013439916733602e-09
 136 3.3999999999999999e-11
     4.4128979984070504e-13
     1.0165386500631977e-11
     1.3722427661408756e-09
 137 3.4249999999999998e-11
     6.9153103382513237e-13
     9.2018830062494134e-12
     1.2541792105183990e-09
 138 3.4499999999999997e-11
     6.5282284786305489e-13
     8.2954712096370252e-12
     1.1462535463445563e-09
 139 3.4749999999999996e-11
     4.0327593694988728e-13
     7.4929927680025734e-12
     1.0476375155300637e-09
 140 3.5000000000000002e-11
     7.2095107661596103e-14
     6.8157382678273731e-12
     9.5754762794017165e-10
 141 3.5250000000000001e-11
     -2.0827176788751345e-13
     6.2531126754177251e-12
     8.7523949166782439e-10
 142 3.5500000000000000e-11
     -3.4552829347722636e-13
     5.7716477505230426e-12
     8.0001751588416187e-10
 143 3.5749999999999999e-11
     -3.1469488473434559e-13
     5.3324831665113939e-12
     7.3124822988273816e-10
 144 3.5999999999999998e-11
     -1.5975068490270417e-13
     4.9077411141365979e-12
     6.6836683984636963e-10
 145 3.6249999999999998e-11
     3.2402032446032791e-14
     4.4885037052693096e-12
     6.1087294722433558e-10
 146 3.6499999999999997e-11
     1.7373776028950516e-13
     4.0824555717845941e-12
     5.5831807845583073e-10
 147 3.6750000000000002e-11
     2.1363379815175776e-13
     3.7045678550067136e-12
     5.1029141795357752e-10
 148 3.7000000000000001e-11
     1.5553183740912857e-13
     3.3668254240061448e-12
     4.6640961237501624e-10
 149 3.7250000000000001e-11
     4.6391709918047752e-14
     3.0721431190541652e-12
     4.2631318044944119e-10
 150 3.7500000000000000e-11
     -5.3206571093422639e-14
     2.8143884148363902e-12
     3.8966818503459108e-10
 151 3.7749999999999999e-11
     -1.0015512724725895e-13
     2.5829508616594804e-12
     3.5616962385052325e-10
 152 3.7999999999999998e-11
     -8.5947308298139902e-14
     2.3683915038299943e-12
     3.2554307692481479e-10
 153 3.8249999999999997e-11
     -3.3082044048615700e-14
     2.1660146786795561e-12
     2.9754300770196834e-10
 154 3.8499999999999996e-11
     2.2893579393334917e-14
     1.9760512230150833e-12
     2.7194829087208092e-10
 155 3.8750000000000002e-11
     5.4169342622589767e-14
     1.8012457438142462e-12
     2.4855692504210936e-10
 156 3.9000000000000001e-11
     5.2420741358805145e-14
     1.6437953700033231e-12
     2.2718189991981913e-10
 157 3.9250000000000000e-11
     2.8060019585662843e-14
     1.5034619836801818e-12
     2.0764922485476400e-10
 158 3.9499999999999999e-11
     -2.3071822230491534e-16
     1.3775798095294872e-12
     1.8979783944581691e-10
 159 3.9749999999999998e-11
     -1.7217130499069810e-14
     1.2624967193094853e-12
     1.7348032342254238e-10
 160 3.9999999999999998e-11
     -1.8162554793477170e-14
     1.1552967478891448e-12
     1.5856321621378691e-10
 161 4.0249999999999997e-11
     -8.0616936737332168e-15
     1.0547904983801946e-12
     1.4492630912629062e-10
 162 4.0500000000000002e-11
     3.7973096889132307e-15
     9.6137406371756169e-13
     1.3246098109435250e-10
 163 4.0750000000000001e-11
     1.0325074129013956e-14
     8.7608758680794707e-13
     1.2106816834863213e-10
 164 4.1000000000000001e-11
     9.6810580385575662e-15
     7.9954378079220845e-13
     1.1065664042627515e-10
 165 4.1250000000000000e-11
     4.7934746449929122e-15
     7.3134031857292718e-13
     1.0114198156297230e-10
 166 4.1499999999999999e-11
     -4.3368086899420177e-19
     6.7015329104167659e-13
     9.2446256487639655e-11
 167 4.1749999999999998e-11
     -1.7950051167670011e-15
     6.1432225951195407e-13
     8.4498040075348113e-11
 168 4.1999999999999997e-11
     -5.7029034272737533e-16
     5.6250557800541744e-13
     7.7232401301131209e-11
 169 4.2249999999999996e-11
     1.8296995862865373e-15
     5.1405461918424544e-13
     7.0590589634506734e-11
 170 4.2500000000000002e-11
     3.2552086026704785e-15
     4.6897285588352183e-13
     6.4519391348646926e-11
 171 4.2750000000000001e-11
     2.8735694379555810e-15
     4.2757869456438308e-13
     5.8970330571797569e-11
 172 4.3000000000000000e-11
     1.2104033053628172e-15
     3.9010541826489838e-13
     5.3898931758750157e-11
 173 4.3249999999999999e-11
     -3.6689401516909470e-16
     3.5645663463567019e-13
     4.9264208381097352e-11
 174 4.3499999999999998e-11
     -8.9858676055598607e-16
     3.2619478678493768e-13
     4.5028398707163547e-11
 175 4.3749999999999998e-11
     -2.1076890233118206e-16
     2.9871314501258260e-13
     4.1156862802798483e-11
 176 4.3999999999999997e-11
     9.7057778480902357e-16
     2.7345562880060070e-13
     3.7618008426158756e-11
 177 4.4250000000000002e-11
     1.8279648628105605e-15
     2.5006563050193435e-13
     3.4383140486236169e-11
 178 4.4500000000000001e-11
     1.8093165854438098e-15
     2.2840700820503726e-13
     3.1426210429525564e-11
 179 4.4750000000000001e-11
     1.0972125985553305e-15
     2.0848227929182866e-13
     2.8723499056679258e-11
 180 4.5000000000000000e-11
     1.6783449630075609e-16
     1.9031271106554823e-13
     2.6253306657526149e-11
 181 4.5249999999999999e-11
     -3.7123082385903672e-16
     1.7385019205479191e-13
     2.3995705921396604e-11
 182 4.5499999999999998e-11
     -3.5344990823027445e-16
     1.5895273920880915e-13
     2.1932381963091913e-11
 183 4.5749999999999997e-11
     1.1839487723541708e-16
     1.4541825046638507e-13
     2.0046534582058434e-11
 184 4.5999999999999996e-11
     6.1105634441283030e-16
     1.3304228595537038e-13
     1.8322811529743882e-11
 185 4.6250000000000002e-11
     8.6389229103644993e-16
     1.2166582032211576e-13
     1.6747224592349175e-11
 186 4.6500000000000001e-11
     7.2424705122031696e-16
     1.1119168872317578e-13
     1.5307046537411939e-11
 187 4.6750000000000000e-11
     3.8857805861880479e-16
     1.0157056334783414e-13
     1.3990678515880817e-11
 188 4.6999999999999999e-11
     3.5128150388530344e-17
     9.2771801932190964e-14
     1.2787525541495953e-11
 189 4.7249999999999998e-11
     -1.0148132334464322e-16
     8.4756966121099855e-14
     1.1687879071693719e-11
 190 4.7499999999999998e-11
     -4.7271214720367993e-17
     7.7468084979650728e-14
     1.0682837915058224e-11
 191 4.7749999999999997e-11
     1.5092094240998222e-16
     7.0831344668688054e-14
     9.7642422576191268e-12
 192 4.8000000000000002e-11
     2.9793875699901662e-16
     6.4770583373726515e-14
     8.9246326257994002e-12
 193 4.8250000000000001e-11
     3.5388358909926865e-16
     5.9219536013236512e-14
     8.1571982783919250e-12
 194 4.8500000000000001e-11
     2.6194324487249787e-16
     5.4128837507052066e-14
     7.4557340553130236e-12
 195 4.8750000000000000e-11
     1.4224732503009818e-16
     4.9463163193140883e-14
     6.8145765180945006e-12
 196 4.8999999999999999e-11
     2.4286128663675299e-17
     4.5195923013222755e-14
     6.2285570581396832e-12
 197 4.9249999999999998e-11
     5.2041704279304213e-18
     4.1300899603514268e-14
     5.6929417777129565e-12
 198 4.9499999999999997e-11
     2.8622937353617317e-17
     3.7749510684243273e-14
     5.2033998312363272e-12
 199 4.9749999999999996e-11
     1.0148132334464322e-16
     3.4509264071553095e-14
     4.7559609787743706e-12
 200 5.0000000000000002e-11
     1.3010426069826053e-16
     3.1548860203976792e-14
     4.3469989977409917e-12
 201 5.0250000000000001e-11
     1.4137996329210978e-16
     2.8839452527462672e-14
     3.9731964463288194e-12
 202 5.0500000000000000e-11
     9.4108748571741785e-17
     2.6358642102753543e-14
     3.6315318157134624e-12
 203 5.0749999999999999e-11
     6.2016364266170854e-17
     2.4087672232265406e-14
     3.3192414745572552e-12
 204 5.0999999999999998e-11
     1.9515639104739080e-17
     2.2012139967763147e-14
     3.0338068212135139e-12
 205 5.1249999999999998e-11
     2.6454533008646308e-17
     2.0117079931134679e-14
     2.7729194808367996e-12
 206 5.1499999999999997e-11
     2.6454533008646308e-17
     1.8388468644905259e-14
     2.5344718186139092e-12
 207 5.1749999999999996e-11
     5.5944832100252029e-17
     1.6810205706813477e-14
     2.3165306478611924e-12
 208 5.2000000000000001e-11
     5.1174342541315809e-17
     1.5367766195879817e-14
     2.1173320800642326e-12
 209 5.2250000000000001e-11
     5.9414279052205643e-17
     1.4047472224072016e-14
     1.9352602745152658e-12
 210 5.2500000000000000e-11
     3.4694469519536142e-17
     1.2838905286138846e-14
     1.7688436436055777e-12
 211 5.2749999999999999e-11
     3.3393426912553537e-17
     1.1732768348451245e-14
     1.6167350119257462e-12
 212 5.2999999999999998e-11
     1.3010426069826053e-17
     1.0721973439306587e-14
     1.4777067915659747e-12
 213 5.3249999999999997e-11
     2.3852447794681098e-17
     9.7989108147067405e-15
     1.3506340143520923e-12
 214 5.3499999999999996e-11
     1.3444106938820255e-17
     8.9567025671200007e-15
     1.2344904829278414e-12
 215 5.3750000000000002e-11
     2.9490299091605721e-17
     8.1875661578269948e-15
     1.1283345677064183e-12
 216 5.4000000000000001e-11
     1.7780915628762273e-17
     7.4848540722576712e-15
     1.0313085563491697e-12
 217 5.4250000000000000e-11
     2.7321894746634712e-17
     6.8417460011207382e-15
     9.4262466755756780e-13
 218 5.4499999999999999e-11
     1.2143064331837650e-17
     6.2532952720042306e-15
     8.6156705684722890e-13
 219 5.4749999999999998e-11
     1.9081958235744878e-17
     5.7146636327134320e-15
     7.8747831823086645e-13
 220 5.4999999999999997e-11
     6.5052130349130266e-18
     5.2225341022268945e-15
     7.1976100210133231e-13
 221 5.5249999999999997e-11
     1.6479873021779667e-17
     4.7728748037156876e-15
     6.5786644794924021e-13
 222 5.5499999999999996e-11
     6.0715321659188248e-18
     4.3626228660425398e-15
     6.0129521804383468e-13
 223 5.5750000000000001e-11
     1.6046192152785466e-17
     3.9878378919368240e-15
     5.4958858644593711e-13
 224 5.6000000000000000e-11
     5.6378512969246231e-18
     3.6455315491606272e-15
     5.0232897268881471e-13
 225 5.6250000000000000e-11
     1.4745149545802860e-17
     3.3323868566925013e-15
     4.5913278604384211e-13
 226 5.6499999999999999e-11
     3.0357660829594124e-18
     3.0458830444814178e-15
     4.1965145551256522e-13
 227 5.6749999999999998e-11
     1.2143064331837650e-17
     2.7837127947790558e-15
     3.8356454514290594e-13
 228 5.6999999999999997e-11
     8.6736173798840355e-19
     2.5441481603730165e-15
     3.5058116349198643e-13
 229 5.7249999999999996e-11
     1.1275702593849246e-17
     2.3251732028488348e-15
     3.2043372946363724e-13
 230 5.7500000000000002e-11
     4.3368086899420177e-19
     2.1252022765292505e-15
     2.9287905651056989e-13
 231 5.7750000000000001e-11
     1.0408340855860843e-17
     1.9424498359614517e-15
     2.6769390740546961e-13
 232 5.8000000000000000e-11
     -4.3368086899420177e-19
     1.7754691488715280e-15
     2.4467445213990913e-13
 233 5.8249999999999993e-11
     9.5409791178724390e-18
     1.6228609168306152e-15
     2.2363464162108992e-13
 234 5.8500000000000005e-11
     -8.6736173798840355e-19
     1.4833274853635198e-15
     2.0440376821695416e-13
 235 5.8750000000000004e-11
     8.6736173798840355e-18
     1.3557643235070221e-15
     1.8682684522694504e-13
 236 5.9000000000000003e-11
     -1.7347234759768071e-18
     1.2391516035926281e-15
     1.7076108322494621e-13
 237 5.9250000000000002e-11
     7.8062556418956319e-18
     1.1325474249829909e-15
     1.5607724531199740e-13
 238 5.9500000000000001e-11
     -2.6020852139652106e-18
     1.0352436681342059e-15
     1.4265547293793035e-13
 239 5.9750000000000000e-11
     7.3725747729014302e-18
     9.4612902581947544e-16
     1.3038859271799486e-13
 240 6.0000000000000000e-11
     -3.0357660829594124e-18
     8.6485790859631984e-16
     1.1917588227036702e-13
 241 6.0249999999999999e-11
     7.3725747729014302e-18
     7.9031900923794141e-16
     1.0892805754614265e-13
 242 6.0499999999999998e-11
     -3.4694469519536142e-18
     7.2246150576750490e-16
     9.9560713406193768e-14
 243 6.0749999999999997e-11
     6.5052130349130266e-18
     6.6016731469463463e-16
     9.0999690421922352e-14
 244 6.0999999999999996e-11
     -3.0357660829594124e-18
     6.0348048173258784e-16
     8.3174190191465103e-14
 245 6.1249999999999995e-11
     6.5052130349130266e-18
     5.5146927063938478e-16
     7.6022142140447224e-14
 246 6.1499999999999994e-11
     -3.0357660829594124e-18
     5.0421499657796187e-16
     6.9484457250468257e-14
 247 6.1749999999999994e-11
     6.5052130349130266e-18
     4.6075881825202725e-16
     6.3509635918335139e-14
 248 6.1999999999999993e-11
     -3.9031278209478160e-18
     4.2123287280135258e-16
     5.8048021684548035e-14
 249 6.2250000000000005e-11
     6.0715321659188248e-18
     3.8486127804625292e-16
     5.3056625932967894e-14
 250 6.2500000000000004e-11
     -3.9031278209478160e-18
     3.5186765068480341e-16
     4.8493869510279897e-14
 251 6.2750000000000003e-11
     5.2041704279304213e-18
     3.2145577974658501e-16
     4.4324190585226519e-14
 252 6.3000000000000002e-11
     -3.4694469519536142e-18
     2.9402207665091273e-16
     4.0512298377093359e-14
 253 6.3250000000000001e-11
     4.3368086899420177e-18
     2.6867207460548603e-16
     3.7028919427223306e-14
 254 6.3500000000000000e-11
     -3.0357660829594124e-18
     2.4587672392897830e-16
     3.3844455016307506e-14
 255 6.3750000000000000e-11
     3.9031278209478160e-18
     2.2452810552638092e-16
     3.0934402175247788e-14
 256 6.3999999999999999e-11
     -3.4694469519536142e-18
     2.0530045762370830e-16
     2.8273824254076985e-14
 257 6.4249999999999998e-11
     3.9031278209478160e-18
     1.8733658287833910e-16
     2.5842988773255859e-14
 258 6.4499999999999997e-11
     -3.0357660829594124e-18
     1.7132088391165479e-16
     2.3620265899443327e-14
 259 6.4749999999999996e-11
     3.9031278209478160e-18
     1.5632501261346465e-16
     2.1589609440486601e-14
 260 6.4999999999999995e-11
     -3.4694469519536142e-18
     1.4305370039588428e-16
     1.9732587959453429e-14
 261 6.5249999999999994e-11
     3.9031278209478160e-18
     1.3058198728051196e-16
     1.8036407870708482e-14
 262 6.5499999999999994e-11
     -3.4694469519536142e-18
     1.1971624863313379e-16
     1.6484968771990349e-14
 263 6.5749999999999993e-11
     4.3368086899420177e-18
     1.0934178909516312e-16
     1.5067916532551795e-14
 264 6.6000000000000005e-11
     -3.4694469519536142e-18
     1.0022432645091783e-16
     1.3771807045453999e-14
 265 6.6250000000000004e-11
     4.3368086899420177e-18
     9.1438900721996230e-17
     1.2587912483208452e-14
 266 6.6500000000000003e-11
     -3.9031278209478160e-18
     8.3659750134412736e-17
     1.1505119773547179e-14
 267 6.6750000000000002e-11
     3.9031278209478160e-18
     7.6236353384676048e-17
     1.0516110551805902e-14
 268 6.7000000000000001e-11
     -3.9031278209478160e-18